----------------------------TITLE -----------------------------------------------------------------------------------------
;   None
;
; This file was generated at 14:19 on 2025-09-24 by
;
;                  Automatic Topology Builder  
;
;                   REVISION 2025-01-17 09:57:26
;---------------------------------------------------------------------------------------------------------------------------
; Authors     : Martin Stroet, Bertrand Caron, Alpeshkumar K. Malde, Thomas Lee, Alan E. Mark
;
; Institute   : Molecular Dynamics group, 
;               School of Chemistry and Molecular Biosciences (SCMB),
;               The University of Queensland, QLD 4072, Australia
; URL         : https://atb.uq.edu.au
; Citations   : 1. Malde AK, Zuo L, Breeze M, Stroet M, Poger D, Nair PC, Oostenbrink C, Mark AE.
;                  An Automated force field Topology Builder (ATB) and repository: version 1.0.
;                  Journal of Chemical Theory and Computation, 2011, 7, 4026-4037.
;               2. Stroet M, Caron B, Visscher K, Geerke D, Malde AK, Mark AE.
;                  Automated Topology Builder version 3.0: Prediction of solvation free enthalpies in water and hexane.
;                  DOI:10.1021/acs.jctc.8b00768
;
; Disclaimer  : 
;      While every effort has been made to ensure the accuracy and validity of parameters provided below
;      the assignment of parameters is being based on an automated procedure combining data provided by a
;      given user as well as calculations performed using third party software. They are provided as a guide.
;      The authors of the ATB cannot guarantee that the parameters are complete or that the parameters provided
;      are appropriate for use in any specific application. Users are advised to treat these parameters with discretion
;      and to perform additional validation tests for their specific application if required. Neither the authors
;      of the ATB or The University of Queensland except any responsibly for how the parameters may be used.
;
; Release notes and warnings: 
;  (1) The topology is based on a set of atomic coordinates and other data provided by the user after
;      after quantum mechanical optimization of the structure using different levels of theory depending on
;      the nature of the molecule.
;  (2) In some cases the automatic bond, bond angle and dihedral type assignment is ambiguous.
;      In these cases alternative type codes are provided at the end of the line.
;  (3) While bonded parameters are taken where possible from the nominated force field non-standard bond, angle and dihedral
;      type code may be incorporated in cases where an exact match could not be found. These are marked as "non-standard"
;      or "uncertain" in comments.
;  (4) In some cases it is not possible to assign an appropriate parameter automatically. "%%" is used as a place holder
;      for those fields that could not be determined automatically. The parameters in these fields must be assigned manually
;      before the file can be used.
;---------------------------------------------------------------------------------------------------------------------------
; Input Structure : LBAI
; Output          : ALL ATOM topology
;	Use in conjunction with the corresponding all atom PDB file.
;---------------------------------------------------------------------------------------------------------------------------
; Citing this topology file
; ATB molid: 1394118
; ATB Topology Hash: d8a71
;---------------------------------------------------------------------------------------------------------------------------
; Initial Guess Topology Generation:
; The topology was generated from AM1 optimized geometry and MOPAC charges.
; Bonded and van der Waals parameters were taken from the GROMOS 54A7 parameter set.
;---------------------------------------------------------------------------------------------------------------------------
;
;
[ moleculetype ]
; Name   nrexcl
LBAI     3
[ atoms ]
;  nr  type  resnr  resid  atom  cgnr  charge    mass
    1    HC    1    LBAI    H32    1    0.134   1.0080
    2  CAro    1    LBAI    C52    2   -0.103  12.0110
    3  CAro    1    LBAI    C51    3   -0.149  12.0110
    4    HC    1    LBAI    H31    4    0.137   1.0080
    5  CAro    1    LBAI    C50    5   -0.078  12.0110
    6    HC    1    LBAI    H30    6    0.154   1.0080
    7  CAro    1    LBAI    C34    7   -0.054  12.0110
    8  CAro    1    LBAI    C54    8   -0.078  12.0110
    9    HC    1    LBAI    H34    9    0.154   1.0080
   10  CAro    1    LBAI    C53   10   -0.149  12.0110
   11    HC    1    LBAI    H33   11    0.137   1.0080
   12  CAro    1    LBAI    C29   12    0.139  12.0110
   13  NPri    1    LBAI     N6   13   -0.253  14.0067
   14  CAro    1    LBAI    C26   14    0.212  12.0110
   15  NPri    1    LBAI     N8   15   -0.253  14.0067
   16  CAro    1    LBAI    C30   16    0.139  12.0110
   17  NOpt    1    LBAI     N7   17   -0.236  14.0067
   18  CAro    1    LBAI    C33   18   -0.054  12.0110
   19  CAro    1    LBAI    C45   19   -0.078  12.0110
   20    HC    1    LBAI    H25   20    0.154   1.0080
   21  CAro    1    LBAI    C46   21   -0.149  12.0110
   22    HC    1    LBAI    H26   22    0.137   1.0080
   23  CAro    1    LBAI    C47   23   -0.103  12.0110
   24    HC    1    LBAI    H27   24    0.134   1.0080
   25  CAro    1    LBAI    C48   25   -0.149  12.0110
   26    HC    1    LBAI    H28   26    0.137   1.0080
   27  CAro    1    LBAI    C49   27   -0.078  12.0110
   28    HC    1    LBAI    H29   28    0.154   1.0080
   29  NPri    1    LBAI     N2   29   -0.128  14.0067
   30  CAro    1    LBAI    C17   30    0.058  12.0110
   31  CAro    1    LBAI    C16   31   -0.071  12.0110
   32  CAro    1    LBAI    C15   32   -0.086  12.0110
   33    HC    1    LBAI    H10   33    0.138   1.0080
   34  CAro    1    LBAI    C14   34   -0.148  12.0110
   35    HC    1    LBAI     H9   35    0.134   1.0080
   36  CAro    1    LBAI    C13   36   -0.111  12.0110
   37    HC    1    LBAI     H8   37    0.134   1.0080
   38  CAro    1    LBAI    C18   38   -0.124  12.0110
   39    HC    1    LBAI    H11   39    0.166   1.0080
   40  CAro    1    LBAI    C19   40   -0.067  12.0110
   41  CAro    1    LBAI    C20   41    0.056  12.0110
   42  CAro    1    LBAI    C24   42   -0.114  12.0110
   43    HC    1    LBAI    H14   43    0.171   1.0080
   44  CAro    1    LBAI    C23   44   -0.025  12.0110
   45  CAro    1    LBAI    C22   45   -0.135  12.0110
   46    HC    1    LBAI    H13   46    0.143   1.0080
   47  CAro    1    LBAI    C21   47   -0.089  12.0110
   48    HC    1    LBAI    H12   48    0.140   1.0080
   49  CAro    1    LBAI    C11   49   -0.025  12.0110
   50  CAro    1    LBAI    C10   50   -0.135  12.0110
   51    HC    1    LBAI     H6   51    0.143   1.0080
   52  CAro    1    LBAI     C9   52   -0.089  12.0110
   53    HC    1    LBAI     H5   53    0.140   1.0080
   54  CAro    1    LBAI     C7   54   -0.067  12.0110
   55  CAro    1    LBAI     C4   55   -0.071  12.0110
   56  CAro    1    LBAI     C3   56   -0.086  12.0110
   57    HC    1    LBAI     H3   57    0.138   1.0080
   58  CAro    1    LBAI     C2   58   -0.148  12.0110
   59    HC    1    LBAI     H2   59    0.134   1.0080
   60  CAro    1    LBAI     C1   60   -0.111  12.0110
   61    HC    1    LBAI     H1   61    0.134   1.0080
   62  CAro    1    LBAI     C6   62   -0.124  12.0110
   63    HC    1    LBAI     H4   63    0.166   1.0080
   64  CAro    1    LBAI     C5   64    0.058  12.0110
   65  NPri    1    LBAI     N1   65   -0.128  14.0067
   66  CAro    1    LBAI     C8   66    0.056  12.0110
   67  CAro    1    LBAI    C12   67   -0.114  12.0110
   68    HC    1    LBAI     H7   68    0.171   1.0080
   69  CAro    1    LBAI    C25   69    0.212  12.0110
   70  NPri    1    LBAI     N3   70   -0.253  14.0067
   71  CAro    1    LBAI    C27   71    0.139  12.0110
   72  CAro    1    LBAI    C31   72   -0.054  12.0110
   73  CAro    1    LBAI    C35   73   -0.078  12.0110
   74    HC    1    LBAI    H15   74    0.154   1.0080
   75  CAro    1    LBAI    C36   75   -0.149  12.0110
   76    HC    1    LBAI    H16   76    0.137   1.0080
   77  CAro    1    LBAI    C37   77   -0.103  12.0110
   78    HC    1    LBAI    H17   78    0.134   1.0080
   79  CAro    1    LBAI    C38   79   -0.149  12.0110
   80    HC    1    LBAI    H18   80    0.137   1.0080
   81  CAro    1    LBAI    C39   81   -0.078  12.0110
   82    HC    1    LBAI    H19   82    0.154   1.0080
   83  NOpt    1    LBAI     N4   83   -0.236  14.0067
   84  CAro    1    LBAI    C28   84    0.139  12.0110
   85  NPri    1    LBAI     N5   85   -0.253  14.0067
   86  CAro    1    LBAI    C32   86   -0.054  12.0110
   87  CAro    1    LBAI    C40   87   -0.078  12.0110
   88    HC    1    LBAI    H20   88    0.154   1.0080
   89  CAro    1    LBAI    C41   89   -0.149  12.0110
   90    HC    1    LBAI    H21   90    0.137   1.0080
   91  CAro    1    LBAI    C42   91   -0.103  12.0110
   92    HC    1    LBAI    H22   92    0.134   1.0080
   93  CAro    1    LBAI    C43   93   -0.149  12.0110
   94    HC    1    LBAI    H23   94    0.137   1.0080
   95  CAro    1    LBAI    C44   95   -0.078  12.0110
   96    HC    1    LBAI    H24   96    0.154   1.0080
; total charge of the molecule:   0.000
[ bonds ]
;  ai   aj  funct   c0         c1
    1    2    2   0.1100   1.2100e+07
    2    3    2   0.1390   8.6600e+06
    2   10    2   0.1390   8.6600e+06
    3    4    2   0.1090   1.2300e+07
    3    5    2   0.1390   8.6600e+06
    5    6    2   0.1100   1.2100e+07
    5    7    2   0.1400   8.5400e+06
    7    8    2   0.1400   8.5400e+06
    7   12    2   0.1490   1.4189e+07
    8    9    2   0.1100   1.2100e+07
    8   10    2   0.1390   8.6600e+06
   10   11    2   0.1090   1.2300e+07
   12   13    2   0.1360   1.0200e+07
   12   17    2   0.1380   1.1000e+07
   13   14    2   0.1390   8.6600e+06
   14   15    2   0.1390   8.6600e+06
   14   29    2   0.1400   8.5400e+06
   15   16    2   0.1360   1.0200e+07
   16   17    2   0.1380   1.1000e+07
   16   18    2   0.1490   1.4189e+07
   18   19    2   0.1400   8.5400e+06
   18   27    2   0.1400   8.5400e+06
   19   20    2   0.1100   1.2100e+07
   19   21    2   0.1390   8.6600e+06
   21   22    2   0.1090   1.2300e+07
   21   23    2   0.1390   8.6600e+06
   23   24    2   0.1100   1.2100e+07
   23   25    2   0.1390   8.6600e+06
   25   26    2   0.1090   1.2300e+07
   25   27    2   0.1390   8.6600e+06
   27   28    2   0.1100   1.2100e+07
   29   30    2   0.1430   8.1800e+06
   29   41    2   0.1430   8.1800e+06
   30   31    2   0.1440   3.3758e+05
   30   38    2   0.1390   8.6600e+06
   31   32    2   0.1390   8.6600e+06
   31   40    2   0.1450   5.2319e+06
   32   33    2   0.1090   1.2300e+07
   32   34    2   0.1390   8.6600e+06
   34   35    2   0.1090   1.2300e+07
   34   36    2   0.1390   8.6600e+06
   36   37    2   0.1100   1.2100e+07
   36   38    2   0.1390   8.6600e+06
   38   39    2   0.1090   1.2300e+07
   40   41    2   0.1440   3.3758e+05
   40   47    2   0.1390   8.6600e+06
   41   42    2   0.1390   8.6600e+06
   42   43    2   0.1090   1.2300e+07
   42   44    2   0.1410   6.5389e+06
   44   45    2   0.1400   8.5400e+06
   44   49    2   0.1470   8.7100e+06
   45   46    2   0.1100   1.2100e+07
   45   47    2   0.1390   8.6600e+06
   47   48    2   0.1090   1.2300e+07
   49   50    2   0.1400   8.5400e+06
   49   67    2   0.1410   6.5389e+06
   50   51    2   0.1100   1.2100e+07
   50   52    2   0.1390   8.6600e+06
   52   53    2   0.1090   1.2300e+07
   52   54    2   0.1390   8.6600e+06
   54   55    2   0.1450   5.2319e+06
   54   66    2   0.1440   3.3758e+05
   55   56    2   0.1390   8.6600e+06
   55   64    2   0.1440   3.3758e+05
   56   57    2   0.1090   1.2300e+07
   56   58    2   0.1390   8.6600e+06
   58   59    2   0.1090   1.2300e+07
   58   60    2   0.1390   8.6600e+06
   60   61    2   0.1100   1.2100e+07
   60   62    2   0.1390   8.6600e+06
   62   63    2   0.1090   1.2300e+07
   62   64    2   0.1390   8.6600e+06
   64   65    2   0.1430   8.1800e+06
   65   66    2   0.1430   8.1800e+06
   65   69    2   0.1400   8.5400e+06
   66   67    2   0.1390   8.6600e+06
   67   68    2   0.1090   1.2300e+07
   69   70    2   0.1390   8.6600e+06
   69   85    2   0.1390   8.6600e+06
   70   71    2   0.1360   1.0200e+07
   71   72    2   0.1490   1.4189e+07
   71   83    2   0.1380   1.1000e+07
   72   73    2   0.1400   8.5400e+06
   72   81    2   0.1400   8.5400e+06
   73   74    2   0.1100   1.2100e+07
   73   75    2   0.1390   8.6600e+06
   75   76    2   0.1090   1.2300e+07
   75   77    2   0.1390   8.6600e+06
   77   78    2   0.1100   1.2100e+07
   77   79    2   0.1390   8.6600e+06
   79   80    2   0.1090   1.2300e+07
   79   81    2   0.1390   8.6600e+06
   81   82    2   0.1100   1.2100e+07
   83   84    2   0.1380   1.1000e+07
   84   85    2   0.1360   1.0200e+07
   84   86    2   0.1490   1.4189e+07
   86   87    2   0.1400   8.5400e+06
   86   95    2   0.1400   8.5400e+06
   87   88    2   0.1100   1.2100e+07
   87   89    2   0.1390   8.6600e+06
   89   90    2   0.1090   1.2300e+07
   89   91    2   0.1390   8.6600e+06
   91   92    2   0.1100   1.2100e+07
   91   93    2   0.1390   8.6600e+06
   93   94    2   0.1090   1.2300e+07
   93   95    2   0.1390   8.6600e+06
   95   96    2   0.1100   1.2100e+07
[ pairs ]
;  ai   aj  funct  ;  all 1-4 pairs but the ones excluded in GROMOS itp
    1    4    1
    1    5    1
    1    8    1
    1   11    1
    2    6    1
    2    9    1
    3   11    1
    3   12    1
    4    6    1
    4    7    1
    4   10    1
    5    9    1
    5   13    1
    5   17    1
    6    8    1
    6   12    1
    7   11    1
    7   14    1
    7   16    1
    8   13    1
    8   17    1
    9   11    1
    9   12    1
   10   12    1
   12   18    1
   12   29    1
   13   30    1
   13   41    1
   14   18    1
   14   31    1
   14   38    1
   14   40    1
   14   42    1
   15   19    1
   15   27    1
   15   30    1
   15   41    1
   16   20    1
   16   21    1
   16   25    1
   16   28    1
   16   29    1
   17   19    1
   17   27    1
   18   22    1
   18   26    1
   19   24    1
   19   28    1
   20   22    1
   20   23    1
   20   27    1
   21   26    1
   22   24    1
   22   25    1
   23   28    1
   24   26    1
   24   27    1
   26   28    1
   29   32    1
   29   36    1
   29   39    1
   29   43    1
   29   44    1
   29   47    1
   30   33    1
   30   37    1
   30   42    1
   30   47    1
   31   35    1
   31   39    1
   31   42    1
   31   45    1
   31   48    1
   32   37    1
   32   41    1
   32   47    1
   33   35    1
   33   36    1
   33   40    1
   34   39    1
   34   40    1
   35   37    1
   35   38    1
   37   39    1
   38   40    1
   38   41    1
   40   43    1
   40   46    1
   41   48    1
   41   49    1
   42   46    1
   42   50    1
   42   67    1
   43   45    1
   43   49    1
   44   48    1
   44   51    1
   44   52    1
   44   66    1
   44   68    1
   45   50    1
   45   67    1
   46   48    1
   46   49    1
   47   49    1
   49   53    1
   49   65    1
   50   55    1
   50   68    1
   51   53    1
   51   54    1
   51   67    1
   52   56    1
   52   64    1
   52   65    1
   53   55    1
   53   66    1
   54   57    1
   54   58    1
   54   62    1
   54   68    1
   54   69    1
   55   59    1
   55   63    1
   55   67    1
   55   69    1
   56   61    1
   56   65    1
   56   66    1
   57   59    1
   57   60    1
   57   64    1
   58   63    1
   59   61    1
   59   62    1
   60   65    1
   61   63    1
   61   64    1
   62   66    1
   62   69    1
   63   65    1
   64   67    1
   64   70    1
   64   85    1
   65   68    1
   65   71    1
   65   84    1
   66   70    1
   66   85    1
   67   69    1
   69   72    1
   69   86    1
   70   73    1
   70   81    1
   71   74    1
   71   75    1
   71   79    1
   71   82    1
   71   86    1
   72   76    1
   72   80    1
   72   84    1
   73   78    1
   73   82    1
   73   83    1
   74   76    1
   74   77    1
   74   81    1
   75   80    1
   76   78    1
   76   79    1
   77   82    1
   78   80    1
   78   81    1
   80   82    1
   81   83    1
   83   87    1
   83   95    1
   84   88    1
   84   89    1
   84   93    1
   84   96    1
   85   87    1
   85   95    1
   86   90    1
   86   94    1
   87   92    1
   87   96    1
   88   90    1
   88   91    1
   88   95    1
   89   94    1
   90   92    1
   90   93    1
   91   96    1
   92   94    1
   92   95    1
   94   96    1
[ angles ]
;  ai   aj   ak  funct   angle     fc
    1    2    3    2    120.00   505.00
    1    2   10    2    120.00   505.00
    3    2   10    2    120.00   560.00
    2    3    4    2    120.00   505.00
    2    3    5    2    120.00   560.00
    4    3    5    2    120.00   505.00
    3    5    6    2    120.00   505.00
    3    5    7    2    120.00   560.00
    6    5    7    2    120.00   505.00
    5    7    8    2    120.00   560.00
    5    7   12    2    120.00   560.00
    8    7   12    2    120.00   560.00
    7    8    9    2    120.00   505.00
    7    8   10    2    120.00   560.00
    9    8   10    2    120.00   505.00
    2   10    8    2    120.00   560.00
    2   10   11    2    120.00   505.00
    8   10   11    2    120.00   505.00
    7   12   13    2    120.00   560.00
    7   12   17    2    120.00   560.00
   13   12   17    2    120.00   560.00
   12   13   14    2    116.00   620.00
   13   14   15    2    120.00   560.00
   13   14   29    2    120.00   560.00
   15   14   29    2    120.00   560.00
   14   15   16    2    116.00   620.00
   15   16   17    2    120.00   560.00
   15   16   18    2    120.00   560.00
   17   16   18    2    120.00   560.00
   12   17   16    2    116.00   620.00
   16   18   19    2    120.00   560.00
   16   18   27    2    120.00   560.00
   19   18   27    2    120.00   560.00
   18   19   20    2    120.00   505.00
   18   19   21    2    120.00   560.00
   20   19   21    2    120.00   505.00
   19   21   22    2    120.00   505.00
   19   21   23    2    120.00   560.00
   22   21   23    2    120.00   505.00
   21   23   24    2    120.00   505.00
   21   23   25    2    120.00   560.00
   24   23   25    2    120.00   505.00
   23   25   26    2    120.00   505.00
   23   25   27    2    120.00   560.00
   26   25   27    2    120.00   505.00
   18   27   25    2    120.00   560.00
   18   27   28    2    120.00   505.00
   25   27   28    2    120.00   505.00
   14   29   30    2    124.00   730.00
   14   29   41    2    124.00   730.00
   30   29   41    2    107.60   507.00
   29   30   31    2    109.50   520.00
   29   30   38    2    132.00   760.00
   31   30   38    2    120.00   560.00
   30   31   32    2    120.00   560.00
   30   31   40    2    109.50   520.00
   32   31   40    2    132.00   760.00
   31   32   33    2    120.00   505.00
   31   32   34    2    120.00   560.00
   33   32   34    2    120.00   505.00
   32   34   35    2    120.00   505.00
   32   34   36    2    120.00   560.00
   35   34   36    2    120.00   505.00
   34   36   37    2    120.00   505.00
   34   36   38    2    120.00   560.00
   37   36   38    2    120.00   505.00
   30   38   36    2    120.00   560.00
   30   38   39    2    120.00   505.00
   36   38   39    2    120.00   505.00
   31   40   41    2    109.50   520.00
   31   40   47    2    132.00   760.00
   41   40   47    2    120.00   560.00
   29   41   40    2    109.50   520.00
   29   41   42    2    132.00   760.00
   40   41   42    2    120.00   560.00
   41   42   43    2    120.00   505.00
   41   42   44    2    120.00   560.00
   43   42   44    2    120.00   505.00
   42   44   45    2    120.00   560.00
   42   44   49    2    120.00   560.00
   45   44   49    2    120.00   560.00
   44   45   46    2    120.00   505.00
   44   45   47    2    120.00   560.00
   46   45   47    2    120.00   505.00
   40   47   45    2    120.00   560.00
   40   47   48    2    120.00   505.00
   45   47   48    2    120.00   505.00
   44   49   50    2    120.00   560.00
   44   49   67    2    120.00   560.00
   50   49   67    2    120.00   560.00
   49   50   51    2    120.00   505.00
   49   50   52    2    120.00   560.00
   51   50   52    2    120.00   505.00
   50   52   53    2    120.00   505.00
   50   52   54    2    120.00   560.00
   53   52   54    2    120.00   505.00
   52   54   55    2    132.00   760.00
   52   54   66    2    120.00   560.00
   55   54   66    2    109.50   520.00
   54   55   56    2    132.00   760.00
   54   55   64    2    109.50   520.00
   56   55   64    2    120.00   560.00
   55   56   57    2    120.00   505.00
   55   56   58    2    120.00   560.00
   57   56   58    2    120.00   505.00
   56   58   59    2    120.00   505.00
   56   58   60    2    120.00   560.00
   59   58   60    2    120.00   505.00
   58   60   61    2    120.00   505.00
   58   60   62    2    120.00   560.00
   61   60   62    2    120.00   505.00
   60   62   63    2    120.00   505.00
   60   62   64    2    120.00   560.00
   63   62   64    2    120.00   505.00
   55   64   62    2    120.00   560.00
   55   64   65    2    109.50   520.00
   62   64   65    2    132.00   760.00
   64   65   66    2    107.60   507.00
   64   65   69    2    124.00   730.00
   66   65   69    2    124.00   730.00
   54   66   65    2    109.50   520.00
   54   66   67    2    120.00   560.00
   65   66   67    2    132.00   760.00
   49   67   66    2    120.00   560.00
   49   67   68    2    120.00   505.00
   66   67   68    2    120.00   505.00
   65   69   70    2    120.00   560.00
   65   69   85    2    120.00   560.00
   70   69   85    2    120.00   560.00
   69   70   71    2    116.00   620.00
   70   71   72    2    120.00   560.00
   70   71   83    2    120.00   560.00
   72   71   83    2    120.00   560.00
   71   72   73    2    120.00   560.00
   71   72   81    2    120.00   560.00
   73   72   81    2    120.00   560.00
   72   73   74    2    120.00   505.00
   72   73   75    2    120.00   560.00
   74   73   75    2    120.00   505.00
   73   75   76    2    120.00   505.00
   73   75   77    2    120.00   560.00
   76   75   77    2    120.00   505.00
   75   77   78    2    120.00   505.00
   75   77   79    2    120.00   560.00
   78   77   79    2    120.00   505.00
   77   79   80    2    120.00   505.00
   77   79   81    2    120.00   560.00
   80   79   81    2    120.00   505.00
   72   81   79    2    120.00   560.00
   72   81   82    2    120.00   505.00
   79   81   82    2    120.00   505.00
   71   83   84    2    116.00   620.00
   83   84   85    2    120.00   560.00
   83   84   86    2    120.00   560.00
   85   84   86    2    120.00   560.00
   69   85   84    2    116.00   620.00
   84   86   87    2    120.00   560.00
   84   86   95    2    120.00   560.00
   87   86   95    2    120.00   560.00
   86   87   88    2    120.00   505.00
   86   87   89    2    120.00   560.00
   88   87   89    2    120.00   505.00
   87   89   90    2    120.00   505.00
   87   89   91    2    120.00   560.00
   90   89   91    2    120.00   505.00
   89   91   92    2    120.00   505.00
   89   91   93    2    120.00   560.00
   92   91   93    2    120.00   505.00
   91   93   94    2    120.00   505.00
   91   93   95    2    120.00   560.00
   94   93   95    2    120.00   505.00
   86   95   93    2    120.00   560.00
   86   95   96    2    120.00   505.00
   93   95   96    2    120.00   505.00
[ dihedrals ]
; GROMOS improper dihedrals
;  ai   aj   ak   al  funct   angle     fc
   60   58   61   62    2      0.00   167.36
   58   56   59   60    2      0.00   167.36
   56   55   57   58    2      0.00   167.36
   55   54   56   64    2      0.00   167.36
   64   55   62   65    2      0.00   167.36
   62   60   63   64    2      0.00   167.36
   54   52   55   66    2      0.00   167.36
   66   54   65   67    2      0.00   167.36
   65   64   66   69    2      0.00   167.36
   52   50   53   54    2      0.00   167.36
   50   49   51   52    2      0.00   167.36
   49   44   50   67    2      0.00   167.36
   67   49   66   68    2      0.00   167.36
   36   34   37   38    2      0.00   167.36
   34   32   35   36    2      0.00   167.36
   32   31   33   34    2      0.00   167.36
   31   30   32   40    2      0.00   167.36
   30   29   31   38    2      0.00   167.36
   38   30   36   39    2      0.00   167.36
   40   31   41   47    2      0.00   167.36
   41   29   40   42    2      0.00   167.36
   29   14   30   41    2      0.00   167.36
   47   40   45   48    2      0.00   167.36
   45   44   46   47    2      0.00   167.36
   44   42   45   49    2      0.00   167.36
   42   41   43   44    2      0.00   167.36
   69   65   70   85    2      0.00   167.36
   14   13   15   29    2      0.00   167.36
   71   70   72   83    2      0.00   167.36
   84   83   85   86    2      0.00   167.36
   12    7   13   17    2      0.00   167.36
   16   15   17   18    2      0.00   167.36
   72   71   73   81    2      0.00   167.36
   86   84   87   95    2      0.00   167.36
   18   16   19   27    2      0.00   167.36
    7    5    8   12    2      0.00   167.36
   73   72   74   75    2      0.00   167.36
   75   73   76   77    2      0.00   167.36
   77   75   78   79    2      0.00   167.36
   79   77   80   81    2      0.00   167.36
   81   72   79   82    2      0.00   167.36
   87   86   88   89    2      0.00   167.36
   89   87   90   91    2      0.00   167.36
   91   89   92   93    2      0.00   167.36
   93   91   94   95    2      0.00   167.36
   95   86   93   96    2      0.00   167.36
   19   18   20   21    2      0.00   167.36
   21   19   22   23    2      0.00   167.36
   23   21   24   25    2      0.00   167.36
   25   23   26   27    2      0.00   167.36
   27   18   25   28    2      0.00   167.36
    5    3    6    7    2      0.00   167.36
    3    2    4    5    2      0.00   167.36
    2    1    3   10    2      0.00   167.36
   10    2    8   11    2      0.00   167.36
    8    7    9   10    2      0.00   167.36
[ dihedrals ]
;  ai   aj   ak   al  funct    ph0      cp     mult
    2    3    5    7    1    180.00    41.80    2
    3    2   10    8    1    180.00    41.80    2
    3    5    7    8    1    180.00    41.80    2
    5    7    8   10    1    180.00    41.80    2
    5    7   12   13    1    180.00    41.80    2
    7    8   10    2    1    180.00    41.80    2
   10    2    3    5    1    180.00    41.80    2
   12   13   14   15    1    180.00    41.80    2
   13   12   17   16    1    180.00    41.80    2
   13   14   15   16    1    180.00    41.80    2
   13   14   29   30    1    180.00    33.50    2
   14   15   16   17    1    180.00    41.80    2
   15   16   17   12    1    180.00    41.80    2
   17   12   13   14    1    180.00    41.80    2
   17   16   18   19    1    180.00    41.80    2
   18   19   21   23    1    180.00    41.80    2
   19   18   27   25    1    180.00    41.80    2
   19   21   23   25    1    180.00    41.80    2
   21   23   25   27    1    180.00    41.80    2
   23   25   27   18    1    180.00    41.80    2
   27   18   19   21    1    180.00    41.80    2
   29   30   31   40    1    180.00    41.80    2
   30   29   41   40    1    180.00    41.80    2
   30   31   32   34    1    180.00    41.80    2
   30   31   40   41    1    180.00    41.80    2
   31   30   38   36    1    180.00    41.80    2
   31   32   34   36    1    180.00    41.80    2
   32   34   36   38    1    180.00    41.80    2
   34   36   38   30    1    180.00    41.80    2
   40   41   42   44    1    180.00    41.80    2
   41   29   30   31    1    180.00    41.80    2
   41   40   47   45    1    180.00    41.80    2
   41   42   44   45    1    180.00    41.80    2
   42   44   45   47    1    180.00    41.80    2
   44   45   47   40    1    180.00    41.80    2
   45   44   49   50    1    180.00    41.80    2
   47   40   41   42    1    180.00    41.80    2
   49   50   52   54    1    180.00    41.80    2
   50   49   67   66    1    180.00    41.80    2
   50   52   54   66    1    180.00    41.80    2
   52   54   66   67    1    180.00    41.80    2
   54   55   64   65    1    180.00    41.80    2
   54   66   67   49    1    180.00    41.80    2
   55   56   58   60    1    180.00    41.80    2
   55   64   65   66    1    180.00    41.80    2
   56   58   60   62    1    180.00    41.80    2
   58   60   62   64    1    180.00    41.80    2
   60   62   64   55    1    180.00    41.80    2
   64   55   56   58    1    180.00    41.80    2
   64   65   66   54    1    180.00    41.80    2
   64   65   69   70    1    180.00    33.50    2
   66   54   55   64    1    180.00    41.80    2
   67   49   50   52    1    180.00    41.80    2
   69   70   71   83    1    180.00    41.80    2
   70   69   85   84    1    180.00    41.80    2
   70   71   72   73    1    180.00    41.80    2
   70   71   83   84    1    180.00    41.80    2
   71   83   84   85    1    180.00    41.80    2
   72   73   75   77    1    180.00    41.80    2
   73   72   81   79    1    180.00    41.80    2
   73   75   77   79    1    180.00    41.80    2
   75   77   79   81    1    180.00    41.80    2
   77   79   81   72    1    180.00    41.80    2
   81   72   73   75    1    180.00    41.80    2
   83   84   85   69    1    180.00    41.80    2
   83   84   86   87    1    180.00    41.80    2
   85   69   70   71    1    180.00    41.80    2
   86   87   89   91    1    180.00    41.80    2
   87   86   95   93    1    180.00    41.80    2
   87   89   91   93    1    180.00    41.80    2
   89   91   93   95    1    180.00    41.80    2
   91   93   95   86    1    180.00    41.80    2
   95   86   87   89    1    180.00    41.80    2
[ exclusions ]
;  ai   aj  funct  ;  GROMOS 1-4 exclusions
    2    7
    3    8
    5   10
   12   15
   13   16
   14   17
   18   23
   19   25
   21   27
   30   34
   31   36
   32   38
   40   44
   41   45
   42   47
   49   54
   50   66
   52   67
   55   60
   56   62
   58   64
   69   83
   70   84
   71   85
   72   77
   73   79
   75   81
   86   91
   87   93
   89   95